 ATOMS 
  6      1.39702784          0.00000000          0.00000000
  6      0.69851392          1.20969910          0.00000000
  6     -0.69851392          1.20969910          0.00000000
  6     -1.39702784          0.00000000          0.00000000
  6     -0.69851392         -1.20969910          0.00000000
  6      0.69851392         -1.20969910          0.00000000
  1      2.48078276          0.00000000          0.00000000
  1      1.24039138          2.14845947          0.00000000
  1     -1.24039138          2.14845947          0.00000000
  1     -2.48078276          0.00000000          0.00000000
  1     -1.24039138         -2.14845947          0.00000000
  1      1.24039138         -2.14845947          0.00000000
