 ATOMS 
  1      0.00000000          0.00000000         -0.52918938
  1      0.00000000          0.00000000          0.52918938
